data_182710-ICSD
#©2017 by Fachinformationszentrum Karlsruhe, and the U.S. Secretary of 
#Commerce on behalf of the United States.  All rights reserved.
_database_code_ICSD                182710
_audit_creation_date               2012/02/01
_chemical_name_systematic          'Cobalt Diniobium Hexaoxide'
_chemical_formula_structural       'Co Nb2 O6'
_chemical_formula_sum              'Co1 Nb2 O6'
_chemical_name_mineral             Columbite-(Co)
_publ_section_title
;
New investigation of the magnetic structure of Co Nb2 O6 columbite
;
loop_
_citation_id
_citation_journal_abbrev
_citation_year
_citation_journal_volume
_citation_journal_issue
_citation_page_first
_citation_page_last
_citation_journal_id_ASTM
primary 'Journal of Applied Physics' 2011 109 * 07E160-1 07E160-3 JAPIAU
_publ_author_name
;
Sarvezuk, P.W.C.;Kinast, E.J.;Colin, C.V.;Gusmao, M.A.;da Cunha, 
J.B.M.;Isnard, O.
;
_cell_length_a                     14.125(2)
_cell_length_b                     5.701(3)
_cell_length_c                     5.038(4)
_cell_angle_alpha                  90.
_cell_angle_beta                   90.
_cell_angle_gamma                  90.
_cell_volume                       405.69
_cell_formula_units_Z              4
_symmetry_space_group_name_H-M     'P b c n'
_symmetry_Int_Tables_number        60
_refine_ls_R_factor_all            0.024
loop_
_symmetry_equiv_pos_site_id
_symmetry_equiv_pos_as_xyz
  1	'x, -y, z+1/2'
  2	'-x+1/2, y+1/2, z'
  3	'x+1/2, y+1/2, -z+1/2'
  4	'-x, -y, -z'
  5	'-x, y, -z+1/2'
  6	'x+1/2, -y+1/2, -z'
  7	'-x+1/2, -y+1/2, z+1/2'
  8	'x, y, z'
loop_
_atom_type_symbol
_atom_type_oxidation_number
Co2+	2
Nb5+	5
O2-	-2
loop_
_atom_site_label
_atom_site_type_symbol
_atom_site_symmetry_multiplicity
_atom_site_Wyckoff_symbol
_atom_site_fract_x
_atom_site_fract_y
_atom_site_fract_z
_atom_site_occupancy
_atom_site_attached_hydrogens
Co1 Co2+ 4 c 0 0.1582(2) 0.25 1. 0 
Nb1 Nb5+ 8 d 0.1612(2) 0.3611(2) 0.7809(4) 1. 0 
O1 O2- 8 d 0.0941(2) 0.3722(3) 0.4474(3) 1. 0 
O2 O2- 8 d 0.0828(3) 0.1170(5) 0.8978(1) 1. 0 
O3 O2- 8 d 0.2381(0) 0.1513(3) 0.5949(2) 1. 0 

#End of data_182710-ICSD


