
#(C) 2022 by FIZ Karlsruhe - Leibniz Institute for Information Infrastructure.  All rights reserved.
data_43132-ICSD
_database_code_ICSD 43132
_audit_creation_date 2000-07-15
_audit_update_record 2013-02-01
_chemical_name_common 'Vanadium oxide'
_chemical_formula_structural 'V2 O5'
_chemical_formula_sum 'O5 V2'
_exptl_crystal_density_diffrn 3.34
_citation_title

;
Crystal structure of the product of Mg(2+) insertion into V2 O5 single
crystals
;
loop_
_citation_id
_citation_journal_full
_citation_year
_citation_journal_volume
_citation_page_first
_citation_page_last
_citation_journal_id_ASTM
primary 'Journal of Solid State Chemistry' 1996 123 317 323 JSSCBI
loop_
_citation_author_citation_id
_citation_author_name
primary 'Shklover, V.'
primary 'Haibach, T.'
primary 'Ried, F.'
primary 'Nesper, R.'
primary 'Novak, P.'
_cell_length_a 11.544(2)
_cell_length_b 3.571(1)
_cell_length_c 4.383(1)
_cell_angle_alpha 90.
_cell_angle_beta 90.
_cell_angle_gamma 90.
_cell_volume 180.68
_cell_formula_units_Z 2
_space_group_name_H-M_alt 'P m m n Z'
_space_group_IT_number 59
loop_
_space_group_symop_id
_space_group_symop_operation_xyz
1 'x+1/2, y+1/2, -z'
2 '-x, y+1/2, -z'
3 'x+1/2, -y, -z'
4 '-x, -y, -z'
5 '-x+1/2, -y+1/2, z'
6 'x, -y+1/2, z'
7 '-x+1/2, y, z'
8 'x, y, z'
loop_
_atom_type_symbol
_atom_type_oxidation_number
V5+ 5
O2- -2
loop_
_atom_site_label
_atom_site_type_symbol
_atom_site_symmetry_multiplicity
_atom_site_Wyckoff_symbol
_atom_site_fract_x
_atom_site_fract_y
_atom_site_fract_z
_atom_site_U_iso_or_equiv
_atom_site_occupancy
V1 V5+ 4 f 0.60123(3) 0.25 0.1086(1) 0.0075(2) 1.
O1 O2- 4 f 0.4309(2) 0.25 -.0028(5) 0.0099(5) 1.
O2 O2- 4 f 0.1045(2) 0.25 0.4697(7) 0.0174(7) 1.
O3 O2- 2 b 0.75 0.25 0.0008(8) 0.0127(8) 1.
#End of TTdata_43132-ICSD