data_69878-ICSD
#©2017 by Fachinformationszentrum Karlsruhe, and the U.S. Secretary of 
#Commerce on behalf of the United States.  All rights reserved.
_database_code_ICSD                69878
_audit_creation_date               1993/01/06
_audit_update_record               2006/04/01
_chemical_name_systematic          'Dipotassium Tecto-octatitanate'
_chemical_formula_structural       'K2 (Ti8 O17)'
_chemical_formula_sum              'K2 O17 Ti8'
_publ_section_title
;
Crystal structure of octatitanate M2 Ti8 O17 (M= K, Rb)
;
loop_
_citation_id
_citation_journal_abbrev
_citation_year
_citation_journal_volume
_citation_journal_issue
_citation_page_first
_citation_page_last
_citation_journal_id_ASTM
primary 'Journal of Solid State Chemistry' 1991 92 * 537 542 JSSCBI
2 'Journal of Solid State Chemistry' 1989 83 * 45 51 JSSCBI
_publ_author_name
;
Sasaki, T.;Watanabe, M.;Fujiki, Y.;Kitami, Y.;Yokoyama, M.
;
_cell_length_a                     15.678(2)
_cell_length_b                     3.775(1)
_cell_length_c                     11.951(1)
_cell_angle_alpha                  90.
_cell_angle_beta                   95.67(1)
_cell_angle_gamma                  90.
_cell_volume                       703.85
_cell_formula_units_Z              2
_symmetry_space_group_name_H-M     'C 1 2/m 1'
_symmetry_Int_Tables_number        12
_refine_ls_R_factor_all            0.013
loop_
_symmetry_equiv_pos_site_id
_symmetry_equiv_pos_as_xyz
  1	'-x, y, -z'
  2	'-x, -y, -z'
  3	'x, -y, z'
  4	'x, y, z'
  5	'-x+1/2, y+1/2, -z'
  6	'-x+1/2, -y+1/2, -z'
  7	'x+1/2, -y+1/2, z'
  8	'x+1/2, y+1/2, z'
loop_
_atom_type_symbol
_atom_type_oxidation_number
K1+	1
O2-	-2
Ti4+	4
loop_
_atom_site_label
_atom_site_type_symbol
_atom_site_symmetry_multiplicity
_atom_site_Wyckoff_symbol
_atom_site_fract_x
_atom_site_fract_y
_atom_site_fract_z
_atom_site_occupancy
_atom_site_attached_hydrogens
_atom_site_B_iso_or_equiv
K1 K1+ 4 i 0.4442(7) 0 0.1935(9) 0.68(1) 0 1.4(2) 
K2 K1+ 4 i 0.482(2) 0 0.364(2) 0.32(1) 0 1.4(2) 
Ti1 Ti4+ 4 i 0.1084(4) 0 0.0716(5) 1. 0 0.70(6) 
Ti2 Ti4+ 4 i 0.1519(5) 0 0.3250(7) 1. 0 0.70(6) 
Ti3 Ti4+ 4 i 0.1947(6) 0 0.5768(7) 1. 0 0.70(6) 
Ti4 Ti4+ 4 i 0.2409(4) 0 0.8334(6) 1. 0 0.70(6) 
O1 O2- 2 a 0 0 0 1. 0 0.6(1) 
O2 O2- 4 i 0.063(1) 0 0.221(2) 1. 0 0.6(1) 
O3 O2- 4 i 0.108(2) 0 0.459(2) 1. 0 0.6(1) 
O4 O2- 4 i 0.155(1) 0 0.705(2) 1. 0 0.6(1) 
O5 O2- 4 i 0.173(1) 0 0.938(2) 1. 0 0.6(1) 
O6 O2- 4 i 0.226(1) 0 0.178(2) 1. 0 0.6(1) 
O7 O2- 4 i 0.275(1) 0 0.428(2) 1. 0 0.6(1) 
O8 O2- 4 i 0.318(2) 0 0.683(2) 1. 0 0.6(1) 
O9 O2- 4 i 0.364(1) 0 0.913(2) 1. 0 0.6(1) 

#End of data_69878-ICSD


