data_18312-ICSD
#©2017 by Fachinformationszentrum Karlsruhe, and the U.S. Secretary of 
#Commerce on behalf of the United States.  All rights reserved.
_database_code_ICSD                18312
_audit_creation_date               1980/01/01
_audit_update_record               1988/01/19
_chemical_name_systematic          'Potassium Titanium Oxide (3/8/17)'
_chemical_formula_structural       'K3 Ti8 O17'
_chemical_formula_sum              'K3 O17 Ti8'
_publ_section_title
;
K3 Ti8 O17 a new alkali titanate bronze
;
loop_
_citation_id
_citation_journal_abbrev
_citation_year
_citation_journal_volume
_citation_journal_issue
_citation_page_first
_citation_page_last
_citation_journal_id_ASTM
primary 'Journal of Solid State Chemistry' 1970 1 * 319 325 JSSCBI
_publ_author_name                  'Watts, J.A.'
_cell_length_a                     15.68(1)
_cell_length_b                     3.809(3)
_cell_length_c                     12.06(1)
_cell_angle_alpha                  90.
_cell_angle_beta                   95.
_cell_angle_gamma                  90.
_cell_volume                       717.54
_cell_formula_units_Z              2
_symmetry_space_group_name_H-M     'C 1 2/m 1'
_symmetry_Int_Tables_number        12
_refine_ls_R_factor_all            0.118
loop_
_symmetry_equiv_pos_site_id
_symmetry_equiv_pos_as_xyz
  1	'-x, y, -z'
  2	'-x, -y, -z'
  3	'x, -y, z'
  4	'x, y, z'
  5	'-x+1/2, y+1/2, -z'
  6	'-x+1/2, -y+1/2, -z'
  7	'x+1/2, -y+1/2, z'
  8	'x+1/2, y+1/2, z'
loop_
_atom_type_symbol
_atom_type_oxidation_number
K1+	1
O2-	-2
Ti3.875+	3.875
loop_
_atom_site_label
_atom_site_type_symbol
_atom_site_symmetry_multiplicity
_atom_site_Wyckoff_symbol
_atom_site_fract_x
_atom_site_fract_y
_atom_site_fract_z
_atom_site_occupancy
_atom_site_attached_hydrogens
_atom_site_B_iso_or_equiv
K1 K1+ 4 i 0.4871(22) 0 0.46102(6) 0.5 0 1.7 
K2 K1+ 4 i 0.4429(9) 0 0.1715(2) 1. 0 1. 
Ti1 Ti3.875+ 4 i 0.1134(7) 0 0.0736(8) 1. 0 0.5 
Ti2 Ti3.875+ 4 i 0.1484(7) 0 0.3249(9) 1. 0 0.5 
Ti3 Ti3.875+ 4 i 0.1984(8) 0 0.5769(9) 1. 0 1. 
Ti4 Ti3.875+ 4 i 0.2457(7) 0 0.8311(9) 1. 0 0.8 
O1 O2- 2 a 0 0 0 1. 0 1.8 
O2 O2- 4 i 0.064(2) 0 0.230(3) 1. 0 0.2 
O3 O2- 4 i 0.103(3) 0 0.461(4) 1. 0 1. 
O4 O2- 4 i 0.144(4) 0 0.713(5) 1. 0 2.7 
O5 O2- 4 i 0.172(3) 0 0.931(4) 1. 0 1.3 
O6 O2- 4 i 0.233(3) 0 0.191(4) 1. 0 2.3 
O7 O2- 4 i 0.279(2) 0 0.433(3) 1. 0 0 
O8 O2- 4 i 0.317(3) 0 0.678(4) 1. 0 2. 
O9 O2- 4 i 0.361(2) 0 0.913(3) 1. 0 0 

#End of data_18312-ICSD


