data_195589-ICSD
#©2017 by Fachinformationszentrum Karlsruhe, and the U.S. Secretary of 
#Commerce on behalf of the United States.  All rights reserved.
_database_code_ICSD                195589
_audit_creation_date               2016/02/01
_chemical_name_systematic          'Zinc Zirconium Octaoxodiniobate'
_chemical_formula_structural       'Zn Zr (Nb2 O8)'
_chemical_formula_sum              'Nb2 O8 Zn1 Zr1'
_publ_section_title
;
Bond ionicity, lattice energy, bond energy and microwave dielectric 
properties of Zn Zr (Nb1-x Ax)2 O8 (A = Ta, Sb) ceramics
;
loop_
_citation_id
_citation_journal_abbrev
_citation_year
_citation_journal_volume
_citation_journal_issue
_citation_page_first
_citation_page_last
_citation_journal_id_ASTM
primary 'Dalton Transactions' 2015 44 38 16684 16693 DTARAF
_publ_author_name
;
Zhang, Ping;Zhao, Yonggui;Haitao, Wu
;
_cell_length_a                     4.813
_cell_length_b                     5.674
_cell_length_c                     5.076
_cell_angle_alpha                  90.
_cell_angle_beta                   91.45
_cell_angle_gamma                  90.
_cell_volume                       138.58
_cell_formula_units_Z              1
_symmetry_space_group_name_H-M     'P 1 2/c 1'
_symmetry_Int_Tables_number        13
_refine_ls_R_factor_all            0.1141
loop_
_symmetry_equiv_pos_site_id
_symmetry_equiv_pos_as_xyz
  1	'x, -y, z+1/2'
  2	'-x, -y, -z'
  3	'-x, y, -z+1/2'
  4	'x, y, z'
loop_
_atom_type_symbol
_atom_type_oxidation_number
Nb5+	5
O2-	-2
Zn2+	2
Zr4+	4
loop_
_atom_site_label
_atom_site_type_symbol
_atom_site_symmetry_multiplicity
_atom_site_Wyckoff_symbol
_atom_site_fract_x
_atom_site_fract_y
_atom_site_fract_z
_atom_site_occupancy
_atom_site_attached_hydrogens
Zn1 Zn2+ 2 f 0.5 0.68856 0.250 0.5 0 
Zr1 Zr4+ 2 f 0.5 0.68856 0.250 0.5 0 
Nb1 Nb5+ 2 e 0 0.18317 0.250 1. 0 
O1 O2- 4 g 0.22452 0.10786 0.93916 1. 0 
O2 O2- 4 g 0.26568 0.38588 0.40895 1. 0 

#End of data_195589-ICSD


