data_28409-ICSD
#©2017 by Fachinformationszentrum Karlsruhe, and the U.S. Secretary of 
#Commerce on behalf of the United States.  All rights reserved.
_database_code_ICSD                28409
_audit_creation_date               1980/01/01
_audit_update_record               1987/10/01
_chemical_name_systematic          'Lithium Trichromium(V) Oxide'
_chemical_formula_structural       'Li Cr3 O8'
_chemical_formula_sum              'Cr3 Li1 O8'
_publ_section_title                'The crystal structure of Li Cr3 O8'
loop_
_citation_id
_citation_journal_abbrev
_citation_year
_citation_journal_volume
_citation_journal_issue
_citation_page_first
_citation_page_last
_citation_journal_id_ASTM
primary 'Arkiv foer Kemi' 1967 26 * 131 139 ARKEAD
_publ_author_name                  'Wilhelmi, K.A.'
_cell_length_a                     5.504(2)
_cell_length_b                     8.289(2)
_cell_length_c                     6.117(3)
_cell_angle_alpha                  90.
_cell_angle_beta                   90.
_cell_angle_gamma                  90.
_cell_volume                       279.07
_cell_formula_units_Z              2
_symmetry_space_group_name_H-M     'C m c m'
_symmetry_Int_Tables_number        63
_refine_ls_R_factor_all            0.105
loop_
_symmetry_equiv_pos_site_id
_symmetry_equiv_pos_as_xyz
  1	'-x, y, -z+1/2'
  2	'-x, -y, z+1/2'
  3	'-x, y, z'
  4	'-x, -y, -z'
  5	'x, -y, z+1/2'
  6	'x, y, -z+1/2'
  7	'x, -y, -z'
  8	'x, y, z'
  9	'-x+1/2, y+1/2, -z+1/2'
 10	'-x+1/2, -y+1/2, z+1/2'
 11	'-x+1/2, y+1/2, z'
 12	'-x+1/2, -y+1/2, -z'
 13	'x+1/2, -y+1/2, z+1/2'
 14	'x+1/2, y+1/2, -z+1/2'
 15	'x+1/2, -y+1/2, -z'
 16	'x+1/2, y+1/2, z'
loop_
_atom_type_symbol
_atom_type_oxidation_number
Cr5+	5
Li1+	1
O2-	-2
loop_
_atom_site_label
_atom_site_type_symbol
_atom_site_symmetry_multiplicity
_atom_site_Wyckoff_symbol
_atom_site_fract_x
_atom_site_fract_y
_atom_site_fract_z
_atom_site_occupancy
_atom_site_attached_hydrogens
_atom_site_B_iso_or_equiv
Li1 Li1+ 4 a 0 0 0 0.5 0 0.55 
Cr1 Cr5+ 4 a 0 0 0 0.5 0 0.55 
Cr2 Cr5+ 4 c 0 0.6408(8) 0.25 1. 0 1.07 
O1 O2- 8 f 0 0.2454(21) 0.9627(46) 1. 0 1.18 
O2 O2- 8 g 0.2432(43) 0.0297(22) 0.25 1. 0 1.69 

#End of data_28409-ICSD


data_155850-ICSD
#©2017 by Fachinformationszentrum Karlsruhe, and the U.S. Secretary of 
#Commerce on behalf of the United States.  All rights reserved.
_database_code_ICSD                155850
_audit_creation_date               2007/08/01
_chemical_name_systematic          'Lithium Trichromate(V) - I'
_chemical_formula_structural       'Li (Cr3 O8)'
_chemical_formula_sum              'Cr3 Li1 O8'
_publ_section_title
;
Crystal and electronic structures of Cr3 O8 and Li Cr3 O8: probable 
cathode materials in Li batteries
;
loop_
_citation_id
_citation_journal_abbrev
_citation_year
_citation_journal_volume
_citation_journal_issue
_citation_page_first
_citation_page_last
_citation_journal_id_ASTM
primary 'Physical Review, Serie 3. B - Condensed Matter (18,1978-)'
 2006 73 * 235113-1 235113-13 PRBMDO
_publ_author_name
;
Vidya, R.;Ravindran, P.;Kjekshus, A.;Fjellvag, H.
;
_cell_length_a                     8.3394
_cell_length_b                     5.4749
_cell_length_c                     6.4185
_cell_angle_alpha                  90
_cell_angle_beta                   90.43
_cell_angle_gamma                  90
_cell_volume                       293.04
_cell_formula_units_Z              2
_symmetry_space_group_name_H-M     'C 1 2/m 1'
_symmetry_Int_Tables_number        12
loop_
_symmetry_equiv_pos_site_id
_symmetry_equiv_pos_as_xyz
  1	'-x, y, -z'
  2	'-x, -y, -z'
  3	'x, -y, z'
  4	'x, y, z'
  5	'-x+1/2, y+1/2, -z'
  6	'-x+1/2, -y+1/2, -z'
  7	'x+1/2, -y+1/2, z'
  8	'x+1/2, y+1/2, z'
loop_
_atom_type_symbol
_atom_type_oxidation_number
Cr5+	5
Li1+	1
O2-	-2
loop_
_atom_site_label
_atom_site_type_symbol
_atom_site_symmetry_multiplicity
_atom_site_Wyckoff_symbol
_atom_site_fract_x
_atom_site_fract_y
_atom_site_fract_z
_atom_site_occupancy
_atom_site_attached_hydrogens
Li1 Li1+ 2 a 0 0 0 1. 0 
Cr1 Cr5+ 2 c 0 0 0.5 1. 0 
Cr2 Cr5+ 4 i 0.3570 0 0.2613 1. 0 
O1 O2- 4 i 0.2278 0 0.4572 1. 0 
O2 O2- 4 i 0.2599 0 0.0425 1. 0 
O3 O2- 8 j 0.4733 0.2575 0.2757 1. 0 

#End of data_155850-ICSD


data_155851-ICSD
#©2017 by Fachinformationszentrum Karlsruhe, and the U.S. Secretary of 
#Commerce on behalf of the United States.  All rights reserved.
_database_code_ICSD                155851
_audit_creation_date               2007/08/01
_audit_update_record               2013/08/01
_chemical_name_systematic          'Lithium Trichromate(V) - Ii'
_chemical_formula_structural       'Li (Cr3 O8)'
_chemical_formula_sum              'Cr3 Li1 O8'
_publ_section_title
;
Crystal and electronic structures of Cr3 O8 and Li Cr3 O8: probable 
cathode materials in Li batteries
;
loop_
_citation_id
_citation_journal_abbrev
_citation_year
_citation_journal_volume
_citation_journal_issue
_citation_page_first
_citation_page_last
_citation_journal_id_ASTM
primary 'Physical Review, Serie 3. B - Condensed Matter (18,1978-)'
 2006 73 * 235113-1 235113-13 PRBMDO
_publ_author_name
;
Vidya, R.;Ravindran, P.;Kjekshus, A.;Fjellvag, H.
;
_cell_length_a                     9.8811
_cell_length_b                     5.6842
_cell_length_c                     6.1364
_cell_angle_alpha                  90
_cell_angle_beta                   123.91
_cell_angle_gamma                  90
_cell_volume                       286.04
_cell_formula_units_Z              2
_symmetry_space_group_name_H-M     'C 1 2/m 1'
_symmetry_Int_Tables_number        12
loop_
_symmetry_equiv_pos_site_id
_symmetry_equiv_pos_as_xyz
  1	'-x, y, -z'
  2	'-x, -y, -z'
  3	'x, -y, z'
  4	'x, y, z'
  5	'-x+1/2, y+1/2, -z'
  6	'-x+1/2, -y+1/2, -z'
  7	'x+1/2, -y+1/2, z'
  8	'x+1/2, y+1/2, z'
loop_
_atom_type_symbol
_atom_type_oxidation_number
Cr5+	5
Li1+	1
O2-	-2
loop_
_atom_site_label
_atom_site_type_symbol
_atom_site_symmetry_multiplicity
_atom_site_Wyckoff_symbol
_atom_site_fract_x
_atom_site_fract_y
_atom_site_fract_z
_atom_site_occupancy
_atom_site_attached_hydrogens
Li1 Li1+ 2 a 0 0 0 1. 0 
Cr1 Cr5+ 2 c 0 0 0.5 1. 0 
Cr2 Cr5+ 4 i 0.3741 0 0.6199 1. 0 
O1 O2- 4 i 0.2423 0 0.7135 1. 0 
O2 O2- 4 i 0.7329 0 0.6953 1. 0 
O3 O2- 8 j 0.9913 0.2458 0.7248 1. 0 

#End of data_155851-ICSD


