
#(C) 2022 by FIZ Karlsruhe - Leibniz Institute for Information Infrastructure.  All rights reserved.
data_81050-ICSD
_database_code_ICSD 81050
_audit_creation_date 1997-05-13
_chemical_name_common 'Lithium manganese(III) oxide'
_chemical_formula_structural 'Li Mn O2'
_chemical_formula_sum 'Li1 Mn1 O2'
_chemical_name_structure_type LiMnO2
_exptl_crystal_density_diffrn 4.22
_citation_title

;
Preparation, physical and structural characterization of Li Mn O2 samples with
variable cationic disorder
;
loop_
_citation_id
_citation_journal_full
_citation_year
_citation_journal_volume
_citation_page_first
_citation_page_last
_citation_journal_id_ASTM
primary 'Journal of Materials Chemistry' 1995 5 1919 1925 JMACEP
loop_
_citation_author_citation_id
_citation_author_name
primary 'Croguennec, L.'
primary 'Deniard, P.'
primary 'Brec, R.'
primary 'Lecerf, A.'
_cell_length_a 4.5809(2)
_cell_length_b 5.7487(4)
_cell_length_c 2.8047(2)
_cell_angle_alpha 90.
_cell_angle_beta 90.
_cell_angle_gamma 90.
_cell_volume 73.86
_cell_formula_units_Z 2
_space_group_name_H-M_alt 'P m n m Z'
_space_group_IT_number 59
loop_
_space_group_symop_id
_space_group_symop_operation_xyz
1 'x+1/2, -y, z+1/2'
2 '-x, -y, z+1/2'
3 'x+1/2, -y, -z'
4 '-x, -y, -z'
5 '-x+1/2, y, -z+1/2'
6 'x, y, -z+1/2'
7 '-x+1/2, y, z'
8 'x, y, z'
loop_
_atom_type_symbol
_atom_type_oxidation_number
Mn3+ 3
Li1+ 1
Mn3+ 3
Li1+ 1
O2- -2
loop_
_atom_site_label
_atom_site_type_symbol
_atom_site_symmetry_multiplicity
_atom_site_Wyckoff_symbol
_atom_site_fract_x
_atom_site_fract_y
_atom_site_fract_z
_atom_site_B_iso_or_equiv
_atom_site_occupancy
Mn1 Mn3+ 2 a 0.25 0.633(1) 0.25 0.5 0.935(3)
Li1 Li1+ 2 a 0.25 0.633(1) 0.25 0.5 0.065(3)
Mn2 Mn3+ 2 a 0.25 0.095(5) 0.25 1. 0.065(3)
Li2 Li1+ 2 a 0.25 0.095(5) 0.25 1. 0.935(3)
O1 O2- 2 b 0.75 0.134(4) 0.25 1. 1.
O2 O2- 2 b 0.75 0.605(3) 0.25 1. 1.
#End of TTdata_81050-ICSD