data_183608-ICSD
#©2017 by Fachinformationszentrum Karlsruhe, and the U.S. Secretary of 
#Commerce on behalf of the United States.  All rights reserved.
_database_code_ICSD                183608
_audit_creation_date               2012/08/01
_audit_update_record               2013/08/01
_chemical_name_systematic          'Lithium Molybdate(III)'
_chemical_formula_structural       'Li (Mo O2)'
_chemical_formula_sum              'Li1 Mo1 O2'
_publ_section_title
;
Layered Lix Mo O2 phases with different composition for 
electrochemical application: structural considerations
;
loop_
_citation_id
_citation_journal_abbrev
_citation_year
_citation_journal_volume
_citation_journal_issue
_citation_page_first
_citation_page_last
_citation_journal_id_ASTM
primary 'Chemistry of Materials' 2011 23 * 3429 3441 CMATEX
_publ_author_name
;
Mikhailova, D.;Bramnik, N.N.;Bramnik, K.G.;Reichel, P.;Oswald, 
S.;Senyshyn, A.;Trots, D.M.;Ehrenberg, H.
;
_cell_length_a                     2.858(2)
_cell_length_b                     2.858(2)
_cell_length_c                     15.701(13)
_cell_angle_alpha                  90.
_cell_angle_beta                   90.
_cell_angle_gamma                  120.
_cell_volume                       111.07
_cell_formula_units_Z              3
_symmetry_space_group_name_H-M     'R -3 m H'
_symmetry_Int_Tables_number        166
_symmetry_cell_setting             hexagonal
_refine_ls_R_factor_all            0.0399
loop_
_symmetry_equiv_pos_site_id
_symmetry_equiv_pos_as_xyz
  1	'x-y, -y, -z'
  2	'-x, -x+y, -z'
  3	'y, x, -z'
  4	'x-y, x, -z'
  5	'y, -x+y, -z'
  6	'-x, -y, -z'
  7	'-x+y, y, z'
  8	'x, x-y, z'
  9	'-y, -x, z'
 10	'-x+y, -x, z'
 11	'-y, x-y, z'
 12	'x, y, z'
 13	'x-y+2/3, -y+1/3, -z+1/3'
 14	'x-y+1/3, -y+2/3, -z+2/3'
 15	'-x+2/3, -x+y+1/3, -z+1/3'
 16	'-x+1/3, -x+y+2/3, -z+2/3'
 17	'y+2/3, x+1/3, -z+1/3'
 18	'y+1/3, x+2/3, -z+2/3'
 19	'x-y+2/3, x+1/3, -z+1/3'
 20	'x-y+1/3, x+2/3, -z+2/3'
 21	'y+2/3, -x+y+1/3, -z+1/3'
 22	'y+1/3, -x+y+2/3, -z+2/3'
 23	'-x+2/3, -y+1/3, -z+1/3'
 24	'-x+1/3, -y+2/3, -z+2/3'
 25	'-x+y+2/3, y+1/3, z+1/3'
 26	'-x+y+1/3, y+2/3, z+2/3'
 27	'x+2/3, x-y+1/3, z+1/3'
 28	'x+1/3, x-y+2/3, z+2/3'
 29	'-y+2/3, -x+1/3, z+1/3'
 30	'-y+1/3, -x+2/3, z+2/3'
 31	'-x+y+2/3, -x+1/3, z+1/3'
 32	'-x+y+1/3, -x+2/3, z+2/3'
 33	'-y+2/3, x-y+1/3, z+1/3'
 34	'-y+1/3, x-y+2/3, z+2/3'
 35	'x+2/3, y+1/3, z+1/3'
 36	'x+1/3, y+2/3, z+2/3'
loop_
_atom_type_symbol
_atom_type_oxidation_number
Li1+	1
Mo3+	3
O2-	-2
loop_
_atom_site_label
_atom_site_type_symbol
_atom_site_symmetry_multiplicity
_atom_site_Wyckoff_symbol
_atom_site_fract_x
_atom_site_fract_y
_atom_site_fract_z
_atom_site_occupancy
_atom_site_attached_hydrogens
_atom_site_U_iso_or_equiv
Mo1 Mo3+ 3 a 0 0 0 1. 0 0.019(1) 
Li1 Li1+ 3 b 0.3333 0.6667 0.1667 1. 0 0.03(2) 
O1 O2- 6 c 0 0 0.2525(8) 1. 0 0.012(3) 

#End of data_183608-ICSD


