data_15815-ICSD
#©2017 by Fachinformationszentrum Karlsruhe, and the U.S. Secretary of 
#Commerce on behalf of the United States.  All rights reserved.
_database_code_ICSD                15815
_audit_creation_date               1980/01/01
_audit_update_record               2005/10/01
_chemical_name_systematic          'Molybdenum Oxide (4/11)'
_chemical_formula_structural       'Mo4 O11'
_chemical_formula_sum              'Mo4 O11'
_publ_section_title
;
Crystal structure studies on monoclinic and orthorhombic Mo4 O11
;
loop_
_citation_id
_citation_journal_abbrev
_citation_year
_citation_journal_volume
_citation_journal_issue
_citation_page_first
_citation_page_last
_citation_journal_id_ASTM
primary 'Arkiv foer Kemi' 1963 21 * 365 377 ARKEAD
2 'Golden Book of Phase Transitions, Wroclaw' 2002 1 * 1 123 GBOPT5
_publ_author_name                  'Kihlborg, L.'
_cell_length_a                     24.49
_cell_length_b                     5.457
_cell_length_c                     6.752
_cell_angle_alpha                  90.
_cell_angle_beta                   90.
_cell_angle_gamma                  90.
_cell_volume                       902.35
_cell_formula_units_Z              4
_symmetry_space_group_name_H-M     'P n m a'
_symmetry_Int_Tables_number        62
_symmetry_cell_setting             orthorhombic
_refine_ls_R_factor_all            0.084
loop_
_symmetry_equiv_pos_site_id
_symmetry_equiv_pos_as_xyz
  1	'x+1/2, y, -z+1/2'
  2	'x, -y+1/2, z'
  3	'-x+1/2, y+1/2, z+1/2'
  4	'-x, -y, -z'
  5	'-x+1/2, -y, z+1/2'
  6	'-x, y+1/2, -z'
  7	'x+1/2, -y+1/2, -z+1/2'
  8	'x, y, z'
loop_
_atom_type_symbol
_atom_type_oxidation_number
Mo5.5+	5.5
O2-	-2
loop_
_atom_site_label
_atom_site_type_symbol
_atom_site_symmetry_multiplicity
_atom_site_Wyckoff_symbol
_atom_site_fract_x
_atom_site_fract_y
_atom_site_fract_z
_atom_site_occupancy
_atom_site_attached_hydrogens
_atom_site_B_iso_or_equiv
Mo1 Mo5.5+ 4 c 0.20538(7) 0.25 0.87210(25) 1. 0 0.338 
Mo2 Mo5.5+ 4 c 0.14706(7) 0.75 0.19718(25) 1. 0 0.368 
Mo3 Mo5.5+ 4 c 0.08705(7) 0.25 0.52162(25) 1. 0 0.287 
Mo4 Mo5.5+ 4 c 0.02858(7) 0.75 0.84125(27) 1. 0 0.355 
O1 O2- 4 a 0 0 0 1. 0 1.47 
O2 O2- 8 d 0.1268(7) 0.9906(35) 0.3414(26) 1. 0 2.82 
O3 O2- 8 d 0.0641(4) 0.0057(21) 0.6751(16) 1. 0 0.82 
O4 O2- 8 d 0.1902(7) 0.9935(34) 0.0108(26) 1. 0 2.91 
O5 O2- 4 c 0.0321(6) 0.25 0.3409(24) 1. 0 0.75 
O6 O2- 4 c 0.0940(6) 0.75 0.0214(24) 1. 0 0.85 
O7 O2- 4 c 0.1647(7) 0.25 0.6612(25) 1. 0 0.94 
O8 O2- 4 c 0.2244(7) 0.75 0.3181(26) 1. 0 1.34 

#End of data_15815-ICSD


