data_24031-ICSD
#©2017 by Fachinformationszentrum Karlsruhe, and the U.S. Secretary of 
#Commerce on behalf of the United States.  All rights reserved.
_database_code_ICSD                24031
_audit_creation_date               1986/09/25
_audit_update_record               2015/02/01
_chemical_name_systematic          'Molybdenum Oxide (9/26) - Beta *'
_chemical_formula_structural       'Mo9 O26'
_chemical_formula_sum              'Mo9 O26'
_publ_section_title
;
The Crystal Structures of Mo9 O26 (beta'-Molybdenum Oxide) and Mo8 
O23 (beta - Molybdenum Oxide)
;
loop_
_citation_id
_citation_journal_abbrev
_citation_year
_citation_journal_volume
_citation_journal_issue
_citation_page_first
_citation_page_last
_citation_journal_id_ASTM
primary 'Acta Chemica Scandinavica (1-27,1973-42,1988)' 1948 2 * 501 517 ACSAA4
_publ_author_name                  'Magneli, A.'
_cell_length_a                     16.75
_cell_length_b                     4.03
_cell_length_c                     14.45
_cell_angle_alpha                  90.
_cell_angle_beta                   96.
_cell_angle_gamma                  90.
_cell_volume                       970.07
_cell_formula_units_Z              2
_symmetry_space_group_name_H-M     'P 1 2/a 1'
_symmetry_Int_Tables_number        13
_symmetry_cell_setting             monoclinic
loop_
_symmetry_equiv_pos_site_id
_symmetry_equiv_pos_as_xyz
  1	'x+1/2, -y, z'
  2	'-x, -y, -z'
  3	'-x+1/2, y, -z'
  4	'x, y, z'
loop_
_atom_type_symbol
_atom_type_oxidation_number
Mo5.778+	5.778
O2-	-2
loop_
_atom_site_label
_atom_site_type_symbol
_atom_site_symmetry_multiplicity
_atom_site_Wyckoff_symbol
_atom_site_fract_x
_atom_site_fract_y
_atom_site_fract_z
_atom_site_occupancy
_atom_site_attached_hydrogens
Mo1 Mo5.778+ 2 e 0.25 0.59(4) 0 1. 0 
Mo2 Mo5.778+ 4 g 0.162(30) 0.41(4) 0.221(30) 1. 0 
Mo3 Mo5.778+ 4 g 0.456(30) 0.41(4) 0.113(30) 1. 0 
Mo4 Mo5.778+ 4 g 0.369(30) 0.59(4) 0.334(30) 1. 0 
Mo5 Mo5.778+ 4 g 0.082(30) 0.41(4) 0.45(3) 1. 0 
O1 O2- 2 e 0.25 0.06 0 1. 0 
O2 O2- 4 g 0.455 0.94 0.155 1. 0 
O3 O2- 4 g 0.16 0.94 0.22 1. 0 
O4 O2- 4 g 0.37 0.06 0.335 1. 0 
O5 O2- 4 g 0.08 0.94 0.45 1. 0 
O6 O2- 2 c 0 0.5 0 1. 0 
O7 O2- 4 g 0.335 0.5 0.06 1. 0 
O8 O2- 4 g 0.21 0.5 0.115 1. 0 
O9 O2- 4 g 0.06 0.5 0.18 1. 0 
O10 O2- 4 g 0.42 0.5 0.23 1. 0 
O11 O2- 4 g 0.26 0.5 0.285 1. 0 
O12 O2- 4 g 0.125 0.49 0.345 1. 0 
O13 O2- 4 g 0.456 0.5 0.42 1. 0 
O14 O2- 4 g 0.32 0.5 0.46 1. 0 

#End of data_24031-ICSD


