data_99714-ICSD
#©2017 by Fachinformationszentrum Karlsruhe, and the U.S. Secretary of 
#Commerce on behalf of the United States.  All rights reserved.
_database_code_ICSD                99714
_audit_creation_date               2005/04/01
_chemical_name_systematic          'Molybdenum(V) Oxide'
_chemical_formula_structural       'Mo O2'
_chemical_formula_sum              'Mo1 O2'
_publ_section_title
;
Thermal decomposition of the methoxide complexes Mo O (O Me)4, Re4 O6 
(O Me)12 and (Re1-x Mox) O6 (O Me)12 (0.24 < x < 0.55)
;
loop_
_citation_id
_citation_journal_abbrev
_citation_year
_citation_journal_volume
_citation_journal_issue
_citation_page_first
_citation_page_last
_citation_journal_id_ASTM
primary 'Materials Chemistry and Physics' 2004 87 * 142 148 MCHPDR
_publ_author_name
;
Seisenbaeva, G.A.;Sundberg, M.;Nygren, M.;Dubrovinsky, L.;Kessler, 
V.G.
;
_cell_length_a                     4.8473(3)
_cell_length_b                     4.8473(3)
_cell_length_c                     2.8136(3)
_cell_angle_alpha                  90
_cell_angle_beta                   90
_cell_angle_gamma                  90
_cell_volume                       66.11
_cell_formula_units_Z              2
_symmetry_space_group_name_H-M     'P 42/m n m'
_symmetry_Int_Tables_number        136
_symmetry_cell_setting             tetragonal
_refine_ls_R_factor_all            0.0446
loop_
_symmetry_equiv_pos_site_id
_symmetry_equiv_pos_as_xyz
  1	'-y+1/2, x+1/2, -z+1/2'
  2	'y+1/2, -x+1/2, -z+1/2'
  3	'y, x, -z'
  4	'-y, -x, -z'
  5	'y+1/2, -x+1/2, z+1/2'
  6	'-y+1/2, x+1/2, z+1/2'
  7	'-y, -x, z'
  8	'y, x, z'
  9	'x+1/2, -y+1/2, -z+1/2'
 10	'-x+1/2, y+1/2, -z+1/2'
 11	'x, y, -z'
 12	'-x, -y, -z'
 13	'-x+1/2, y+1/2, z+1/2'
 14	'x+1/2, -y+1/2, z+1/2'
 15	'-x, -y, z'
 16	'x, y, z'
loop_
_atom_type_symbol
_atom_type_oxidation_number
Mo4+	4
O2-	-2
loop_
_atom_site_label
_atom_site_type_symbol
_atom_site_symmetry_multiplicity
_atom_site_Wyckoff_symbol
_atom_site_fract_x
_atom_site_fract_y
_atom_site_fract_z
_atom_site_occupancy
_atom_site_attached_hydrogens
_atom_site_U_iso_or_equiv
Mo1 Mo4+ 2 a 0 0 0 1. 0 0.025 
O1 O2- 4 f 0.3018(7) 0.3018(7) 0 1. 0 0.025 

#End of data_99714-ICSD


