data_644067-ICSD
#©2017 by Fachinformationszentrum Karlsruhe, and the U.S. Secretary of 
#Commerce on behalf of the United States.  All rights reserved.
_database_code_ICSD                644067
_audit_creation_date               2008/08/01
_audit_update_record               2011/02/01
_chemical_name_systematic          'Molybdenum Oxide'
_chemical_formula_structural       'Mo O3'
_chemical_formula_sum              'Mo1 O3'
_publ_section_title
;
A new modification of Re O3 -type Mo O3 and the deuterated 
intercalation compound from which it is derived: D0.99 Mo O3
;
loop_
_citation_id
_citation_journal_abbrev
_citation_year
_citation_journal_volume
_citation_journal_issue
_citation_page_first
_citation_page_last
_citation_journal_id_ASTM
primary 'Materials Research Bulletin' 1987 22 * 803 811 MRBUAC
_publ_author_name
;
Parise, J.B.;McCarron, E.M.;Sleight, A.W.
;
_cell_length_a                     7.6898(1)
_cell_length_b                     7.4780(1)
_cell_length_c                     10.6816(1)
_cell_angle_alpha                  90.0
_cell_angle_beta                   135.96(2)
_cell_angle_gamma                  90.0
_cell_volume                       426.99
_cell_formula_units_Z              8
_symmetry_space_group_name_H-M     'P 1 21/c 1'
_symmetry_Int_Tables_number        14
_symmetry_cell_setting             monoclinic
_refine_ls_R_factor_all            0.036
loop_
_symmetry_equiv_pos_site_id
_symmetry_equiv_pos_as_xyz
  1	'x, -y+1/2, z+1/2'
  2	'-x, -y, -z'
  3	'-x, y+1/2, -z+1/2'
  4	'x, y, z'
loop_
_atom_type_symbol
_atom_type_oxidation_number
Mo0+	0
O0+	0
loop_
_atom_site_label
_atom_site_type_symbol
_atom_site_symmetry_multiplicity
_atom_site_Wyckoff_symbol
_atom_site_fract_x
_atom_site_fract_y
_atom_site_fract_z
_atom_site_occupancy
_atom_site_attached_hydrogens
_atom_site_B_iso_or_equiv
Mo1 Mo0+ 4 e 0.029 0.030 0.735 1 0 2.7 
Mo2 Mo0+ 4 e 0.533 0.020 0.754 1 0 2.7 
O1 O0+ 4 e 0.183 0.036 0.997 1 0 1.0 
O2 O0+ 4 e 0.227 0.490 0.002 1 0 1.0 
O3 O0+ 4 e 0.003 0.271 0.709 1 0 1.0 
O4 O0+ 4 e 0.522 0.255 0.782 1 0 1.0 
O5 O0+ 4 e 0.711 0.067 0.699 1 0 1.0 
O6 O0+ 4 e 0.707 0.482 0.702 1 0 1.0 

#End of data_644067-ICSD


