data_25765-ICSD
#©2017 by Fachinformationszentrum Karlsruhe, and the U.S. Secretary of 
#Commerce on behalf of the United States.  All rights reserved.
_database_code_ICSD                25765
_audit_creation_date               1986/09/25
_chemical_name_systematic          'Diniobium Oxide - R'
_chemical_formula_structural       'Nb2 O5'
_chemical_formula_sum              'Nb2 O5'
_publ_section_title
;
Eine weitere neue Modifikation des Niobpentoxids
;
loop_
_citation_id
_citation_journal_abbrev
_citation_year
_citation_journal_volume
_citation_journal_issue
_citation_page_first
_citation_page_last
_citation_journal_id_ASTM
primary 'Journal of the Less-Common Metals' 1966 11 * 119 126 JCOMAH
_publ_author_name                  'Gruehn, R.'
_cell_length_a                     3.983(4)
_cell_length_b                     3.826(4)
_cell_length_c                     12.79(1)
_cell_angle_alpha                  90.
_cell_angle_beta                   90.75(5)
_cell_angle_gamma                  90.
_cell_volume                       194.89
_cell_formula_units_Z              2
_symmetry_space_group_name_H-M     'A 1 2/m 1'
_symmetry_Int_Tables_number        12
_symmetry_cell_setting             monoclinic
_refine_ls_R_factor_all            0.14
loop_
_symmetry_equiv_pos_site_id
_symmetry_equiv_pos_as_xyz
  1	'x, -y, z'
  2	'-x, -y, -z'
  3	'-x, y, -z'
  4	'x, y, z'
  5	'x, -y+1/2, z+1/2'
  6	'-x, -y+1/2, -z+1/2'
  7	'-x, y+1/2, -z+1/2'
  8	'x, y+1/2, z+1/2'
loop_
_atom_type_symbol
_atom_type_oxidation_number
Nb5+	5
O2-	-2
loop_
_atom_site_label
_atom_site_type_symbol
_atom_site_symmetry_multiplicity
_atom_site_Wyckoff_symbol
_atom_site_fract_x
_atom_site_fract_y
_atom_site_fract_z
_atom_site_occupancy
_atom_site_attached_hydrogens
_atom_site_B_iso_or_equiv
Nb1 Nb5+ 4 i 0.07(1) 0 0.146(2) 1. 0 5. 
O1 O2- 4 i 0.00(4) 0 0.68(1) 1. 0 5. 
O2 O2- 4 i 0.50(4) 0 0.16(1) 1. 0 5. 
O3 O2- 2 a 0 0 0 1. 0 5. 

#End of data_25765-ICSD


