
#(C) 2022 by FIZ Karlsruhe - Leibniz Institute for Information Infrastructure.  All rights reserved.
data_29-ICSD
_database_code_ICSD 29
_audit_creation_date 1980-01-01
_audit_update_record 2008-02-01
_chemical_name_common 'Niobium oxide'
_chemical_formula_structural 'Nb2 O5'
_chemical_formula_sum 'Nb2 O5'
_exptl_crystal_density_diffrn 4.55
_citation_title 'Structure refinement of h-Nb2 O5'
loop_
_citation_id
_citation_journal_full
_citation_year
_citation_journal_volume
_citation_page_first
_citation_page_last
_citation_journal_id_ASTM
primary

;
Acta Crystallographica, Section B: Structural Crystallography and Crystal
Chemistry
; 1976 32 764 767 ACBCAR
loop_
_citation_author_citation_id
_citation_author_name
primary 'Kato, K.'
_cell_length_a 21.153(7)
_cell_length_b 3.8233(5)
_cell_length_c 19.3560(50)
_cell_angle_alpha 90.
_cell_angle_beta 119.80(2)
_cell_angle_gamma 90.
_cell_volume 1358.4
_cell_formula_units_Z 14
_space_group_name_H-M_alt 'P 1 2/m 1'
_space_group_IT_number 10
loop_
_space_group_symop_id
_space_group_symop_operation_xyz
1 '-x, y, -z'
2 '-x, -y, -z'
3 'x, -y, z'
4 'x, y, z'
loop_
_atom_type_symbol
_atom_type_oxidation_number
Nb5+ 5
O2- -2
loop_
_atom_site_label
_atom_site_type_symbol
_atom_site_symmetry_multiplicity
_atom_site_Wyckoff_symbol
_atom_site_fract_x
_atom_site_fract_y
_atom_site_fract_z
_atom_site_B_iso_or_equiv
_atom_site_occupancy
Nb1 Nb5+ 2 i 0 0.2285(3) 0 . 0.5
Nb2 Nb5+ 1 g 0.5 0 0.5 . 1.
Nb3 Nb5+ 2 m 0.16430(3) 0 0.00353(3) . 1.
Nb4 Nb5+ 2 m 0.23623(3) 0 0.23134(3) . 1.
Nb5 Nb5+ 2 m 0.30284(3) 0 0.45456(3) . 1.
Nb6 Nb5+ 2 m 0.36087(3) 0 0.04553(3) . 1.
Nb7 Nb5+ 2 m 0.43325(3) 0 0.27741(4) . 1.
Nb8 Nb5+ 2 m 0.56270(3) 0 0.09346(3) . 1.
Nb9 Nb5+ 2 m 0.62943(3) 0 0.32219(3) . 1.
Nb10 Nb5+ 2 n 0.09353(3) 0.5 0.20187(3) . 1.
Nb11 Nb5+ 2 n 0.15921(3) 0.5 0.42410(3) . 1.
Nb12 Nb5+ 2 n 0.70330(3) 0.5 0.12414(3) . 1.
Nb13 Nb5+ 2 n 0.77056(3) 0.5 0.35151(3) . 1.
Nb14 Nb5+ 2 n 0.89895(3) 0.5 0.16353(3) . 1.
Nb15 Nb5+ 2 n 0.96461(3) 0.5 0.38928(4) . 1.
O1 O2- 1 f 0 0.5 0.5 1.16 1.
O2 O2- 1 h 0.5 0.5 0.5 1.26 1.
O3 O2- 2 m 0.1180(2) 0 0.2012(2) 0.56 1.
O4 O2- 2 m 0.1867(2) 0 0.4314(2) 0.45 1.
O5 O2- 2 m 0.1931(2) 0 0.1067(3) 0.7 1.
O6 O2- 2 m 0.2639(2) 0 0.3395(3) 0.75 1.
O7 O2- 2 m 0.2619(2) 0 0.0139(3) 0.73 1.
O8 O2- 2 m 0.3257(3) 0 0.2417(3) 0.92 1.
O9 O2- 2 m 0.3971(3) 0 0.4790(3) 0.93 1.
O10 O2- 2 m 0.4032(2) 0 0.1497(3) 0.74 1.
O11 O2- 2 m 0.4624(3) 0 0.3833(3) 1.07 1.
O12 O2- 2 m 0.4611(2) 0 0.0382(2) 0.4 1.
O13 O2- 2 m 0.5344(2) 0 0.2954(3) 0.85 1.
O14 O2- 2 m 0.5898(2) 0 0.1959(2) 0.63 1.
O15 O2- 2 m 0.6701(2) 0 0.4306(2) 0.65 1.
O16 O2- 2 m 0.6707(2) 0 0.0961(2) 0.36 1.
O17 O2- 2 m 0.7411(2) 0 0.3357(2) 0.46 1.
O18 O2- 2 m 0.8858(2) 0 0.1341(2) 0.49 1.
O19 O2- 2 m 0.9412(2) 0 0.0303(2) 0.68 1.
O20 O2- 2 m 0.9638(3) 0 0.3798(3) 0.97 1.
O21 O2- 2 n 0.0608(2) 0.5 0.0837(3) 0.91 1.
O22 O2- 2 n 0.0668(2) 0.5 0.4051(3) 0.89 1.
O23 O2- 2 n 0.1327(2) 0.5 0.3122(2) 0.67 1.
O24 O2- 2 n 0.2062(2) 0.5 0.2184(2) 0.45 1.
O25 O2- 2 n 0.2764(2) 0.5 0.4504(2) 0.44 1.
O26 O2- 2 n 0.3551(2) 0.5 0.0113(2) 0.44 1.
O27 O2- 2 n 0.4275(3) 0.5 0.2616(3) 0.87 1.
O28 O2- 2 n 0.5855(2) 0.5 0.0884(2) 0.44 1.
O29 O2- 2 n 0.6535(2) 0.5 0.3176(2) 0.39 1.
O30 O2- 2 n 0.7263(2) 0.5 0.2257(3) 0.69 1.
O31 O2- 2 n 0.7987(2) 0.5 0.4577(3) 0.78 1.
O32 O2- 2 n 0.7917(2) 0.5 0.1318(3) 0.73 1.
O33 O2- 2 n 0.8613(3) 0.5 0.3614(3) 0.95 1.
O34 O2- 2 n 0.8474(2) 0.5 0.0283(2) 0.46 1.
O35 O2- 2 n 0.9280(2) 0.5 0.2664(3) 0.83 1.
O36 O2- 2 n -.0029(2) 0.5 0.1762(3) 0.72 1.
loop_
_atom_site_aniso_label
_atom_site_aniso_type_symbol
_atom_site_aniso_beta_11
_atom_site_aniso_beta_22
_atom_site_aniso_beta_33
_atom_site_aniso_beta_12
_atom_site_aniso_beta_13
_atom_site_aniso_beta_23
Nb1 Nb5+ 0.00037(2) 0.0257(7) 0.00052(2) 0.00025(2) 0 0
Nb2 Nb5+ 0.00048(2) 0.0469(8) 0.00077(2) 0.00030(2) 0 0
Nb3 Nb5+ 0.00042(1) 0.0105(2) 0.00040(1) 0.00019(1) 0 0
Nb4 Nb5+ 0.00031(1) 0.0096(3) 0.00060(1) 0.00020(1) 0 0
Nb5 Nb5+ 0.00037(1) 0.0088(3) 0.00079(1) 0.00030(1) 0 0
Nb6 Nb5+ 0.00039(1) 0.0068(2) 0.00040(1) 0.00020(1) 0 0
Nb7 Nb5+ 0.00043(1) 0.0471(5) 0.00052(1) 0.00023(1) 0 0
Nb8 Nb5+ 0.00031(1) 0.0068(2) 0.00038(1) 0.00016(1) 0 0
Nb9 Nb5+ 0.00037(1) 0.0080(2) 0.00055(1) 0.00025(1) 0 0
Nb10 Nb5+ 0.00038(1) 0.0114(3) 0.00063(1) 0.00028(1) 0 0
Nb11 Nb5+ 0.00036(1) 0.0085(3) 0.00077(1) 0.00029(1) 0 0
Nb12 Nb5+ 0.00030(1) 0.0069(2) 0.00039(1) 0.00015(1) 0 0
Nb13 Nb5+ 0.00033(1) 0.0086(2) 0.00052(1) 0.00019(1) 0 0
Nb14 Nb5+ 0.00038(1) 0.0101(3) 0.00037(1) 0.00017(1) 0 0
Nb15 Nb5+ 0.00047(1) 0.0541(5) 0.00055(1) 0.00027(1) 0 0
#End of TTdata_29-ICSD