data_6120-ICSD
#©2017 by Fachinformationszentrum Karlsruhe, and the U.S. Secretary of 
#Commerce on behalf of the United States.  All rights reserved.
_database_code_ICSD                6120
_audit_creation_date               1980/01/01
_audit_update_record               2015/02/01
_chemical_name_systematic          'Titanium Diniobate'
_chemical_formula_structural       'Ti (Nb2 O7)'
_chemical_formula_sum              'Nb2 O7 Ti1'
_publ_section_title
;
The structures of some titanium-niobium oxides by powder neutron 
diffraction.
;
loop_
_citation_id
_citation_journal_abbrev
_citation_year
_citation_journal_volume
_citation_journal_issue
_citation_page_first
_citation_page_last
_citation_journal_id_ASTM
primary
;
Proceedings of the Royal Society of London, Series A: Mathematical 
and Physical Sciences (76,1906-)
;
 1974 338 * 311 326 PRLAAZ
2 'Powder Diffraction' 1989 4 * 40 54 PODIE2
_publ_author_name                  'von Dreele, R.B.;Cheetham, A.K.'
_cell_length_a                     11.890(5)
_cell_length_b                     3.804(2)
_cell_length_c                     20.373(9)
_cell_angle_alpha                  90.
_cell_angle_beta                   120.199(3)
_cell_angle_gamma                  90.
_cell_volume                       796.4
_cell_formula_units_Z              6
_symmetry_space_group_name_H-M     'A 1 2/m 1'
_symmetry_Int_Tables_number        12
loop_
_symmetry_equiv_pos_site_id
_symmetry_equiv_pos_as_xyz
  1	'x, -y, z'
  2	'-x, -y, -z'
  3	'-x, y, -z'
  4	'x, y, z'
  5	'x, -y+1/2, z+1/2'
  6	'-x, -y+1/2, -z+1/2'
  7	'-x, y+1/2, -z+1/2'
  8	'x, y+1/2, z+1/2'
loop_
_atom_type_symbol
_atom_type_oxidation_number
Nb0+	0
O0+	0
Ti0+	0
loop_
_atom_site_label
_atom_site_type_symbol
_atom_site_symmetry_multiplicity
_atom_site_Wyckoff_symbol
_atom_site_fract_x
_atom_site_fract_y
_atom_site_fract_z
_atom_site_occupancy
_atom_site_attached_hydrogens
_atom_site_B_iso_or_equiv
Ti1 Ti0+ 4 i 0.6456(15) 0 0.0816(9) 0.3333 0 0.38 
Ti2 Ti0+ 4 i 0.357(10) 0 0.2871(60) 0.3333 0 0.38 
Ti3 Ti0+ 4 i 0.3687(12) 0 0.1108(8) 0.3333 0 0.38 
Ti4 Ti0+ 2 a 0 0 0 0.3333 0 0.38 
Ti5 Ti0+ 4 i 0.0045(13) 0 0.1840(7) 0.3333 0 0.38 
Nb1 Nb0+ 4 i 0.6456(15) 0 0.0816(9) 0.6666 0 0.38 
Nb2 Nb0+ 4 i 0.357(10) 0 0.2871(60) 0.6666 0 0.38 
Nb3 Nb0+ 4 i 0.3687(12) 0 0.1108(8) 0.6666 0 0.38 
Nb4 Nb0+ 2 a 0 0 0 0.6666 0 0.38 
Nb5 Nb0+ 4 i 0.0045(13) 0 0.1840(7) 0.6666 0 0.38 
O1 O0+ 2 b 0 0 0.5 1. 0 0.38 
O2 O0+ 4 i 0.0156(12) 0 0.1005(7) 1. 0 0.38 
O3 O0+ 4 i -.0032(12) 0 0.2901(7) 1. 0 0.38 
O4 O0+ 4 i 0.1977(11) 0 0.0492(6) 1. 0 0.38 
O5 O0+ 4 i 0.1975(11) 0 0.2517(6) 1. 0 0.38 
O6 O0+ 4 i 0.8122(10) 0 0.1260(6) 1. 0 0.38 
O7 O0+ 4 i 0.4154(10) 0 0.0239(6) 1. 0 0.38 
O8 O0+ 4 i 0.581(1) 0 0.3726(6) 1. 0 0.38 
O9 O0+ 4 i 0.3856(10) 0 0.2111(6) 1. 0 0.38 
O10 O0+ 4 i 0.5948(9) 0 0.1723(6) 1. 0 0.38 
O11 O0+ 4 i 0.3773(11) 0 0.4020(7) 1. 0 0.38 

#End of data_6120-ICSD


