data_15430-ICSD
#©2017 by Fachinformationszentrum Karlsruhe, and the U.S. Secretary of 
#Commerce on behalf of the United States.  All rights reserved.
_database_code_ICSD                15430
_audit_creation_date               1980/01/01
_audit_update_record               2007/04/01
_chemical_name_systematic          'Titanium Diniobium Oxide'
_chemical_formula_structural       'Ti Nb2 O7'
_chemical_formula_sum              'Nb2 O7 Ti1'
_publ_section_title
;
Mixed oxides of titanium and niobium. I.
;
loop_
_citation_id
_citation_journal_abbrev
_citation_year
_citation_journal_volume
_citation_journal_issue
_citation_page_first
_citation_page_last
_citation_journal_id_ASTM
primary 'Acta Crystallographica (1,1948-23,1967)' 1961 14 * 660 664 ACCRA9
_publ_author_name                  'Wadsley, A.D.'
_cell_length_a                     11.93
_cell_length_b                     3.81
_cell_length_c                     20.44
_cell_angle_alpha                  90.
_cell_angle_beta                   120.16
_cell_angle_gamma                  90.
_cell_volume                       803.29
_cell_formula_units_Z              6
_symmetry_space_group_name_H-M     'A 1 2/m 1'
_symmetry_Int_Tables_number        12
loop_
_symmetry_equiv_pos_site_id
_symmetry_equiv_pos_as_xyz
  1	'x, -y, z'
  2	'-x, -y, -z'
  3	'-x, y, -z'
  4	'x, y, z'
  5	'x, -y+1/2, z+1/2'
  6	'-x, -y+1/2, -z+1/2'
  7	'-x, y+1/2, -z+1/2'
  8	'x, y+1/2, z+1/2'
loop_
_atom_type_symbol
_atom_type_oxidation_number
Nb5+	5
O2-	-2
Ti4+	4
loop_
_atom_site_label
_atom_site_type_symbol
_atom_site_symmetry_multiplicity
_atom_site_Wyckoff_symbol
_atom_site_fract_x
_atom_site_fract_y
_atom_site_fract_z
_atom_site_occupancy
_atom_site_attached_hydrogens
Nb1 Nb5+ 2 a 0 0 0 0.6667 0 
Nb2 Nb5+ 4 i 0.004 0 0.1855 0.6667 0 
Nb3 Nb5+ 4 i 0.3658 0 0.1086 0.6667 0 
Nb4 Nb5+ 4 i 0.3723 0 0.2946 0.6667 0 
Nb5 Nb5+ 4 i 0.6369 0 0.0771 0.6667 0 
Ti1 Ti4+ 2 a 0 0 0 0.3333 0 
Ti2 Ti4+ 4 i 0.004 0 0.1855 0.3333 0 
Ti3 Ti4+ 4 i 0.3658 0 0.1086 0.3333 0 
Ti4 Ti4+ 4 i 0.3723 0 0.2946 0.3333 0 
Ti5 Ti4+ 4 i 0.6369 0 0.0771 0.3333 0 
O1 O2- 4 i 0.002 0 0.094 1. 0 
O2 O2- 2 b 0 0 0.5 1. 0 
O3 O2- 4 i 0.003 0 0.285 1. 0 
O4 O2- 4 i 0.201 0 0.055 1. 0 
O5 O2- 4 i 0.213 0 0.248 1. 0 
O6 O2- 4 i 0.803 0 0.129 1. 0 
O7 O2- 4 i 0.414 0 0.021 1. 0 
O8 O2- 4 i 0.577 0 0.378 1. 0 
O9 O2- 4 i 0.402 0 0.214 1. 0 
O10 O2- 4 i 0.59 0 0.158 1. 0 
O11 O2- 4 i 0.379 0 0.399 1. 0 

#End of data_15430-ICSD


