data_97448-ICSD
#©2017 by Fachinformationszentrum Karlsruhe, and the U.S. Secretary of 
#Commerce on behalf of the United States.  All rights reserved.
_database_code_ICSD                97448
_audit_creation_date               2004/10/01
_chemical_name_systematic
;
Vanadium(III) Molybdenum(III) Oxide (1.6/0.4/3)
;
_chemical_formula_structural       '(V0.8 Mo0.2)2 O3'
_chemical_formula_sum              'Mo0.4 O3 V1.6'
_publ_section_title
;
Effect of doping and temperature on the crystal structure of (V1-x 
Mox)2 O3 above and below the metal/insulator transition
;
loop_
_citation_id
_citation_journal_abbrev
_citation_year
_citation_journal_volume
_citation_journal_issue
_citation_page_first
_citation_page_last
_citation_journal_id_ASTM
primary 'Journal of Solid State Chemistry' 2003 174 * 431 440 JSSCBI
_publ_author_name
;
Tenailleau, C.;Suard, E.;Rodriguez Carvajal, J.;Gibaud, A.;Lacorre, 
P.
;
_cell_length_a                     4.9209(2)
_cell_length_b                     4.9209(2)
_cell_length_c                     14.3050(5)
_cell_angle_alpha                  90
_cell_angle_beta                   90
_cell_angle_gamma                  120
_cell_volume                       299.99
_cell_formula_units_Z              6
_symmetry_space_group_name_H-M     'R -3 c H'
_symmetry_Int_Tables_number        167
_symmetry_cell_setting             hexagonal
loop_
_symmetry_equiv_pos_site_id
_symmetry_equiv_pos_as_xyz
  1	'x-y, -y, -z+1/2'
  2	'-x, -x+y, -z+1/2'
  3	'y, x, -z+1/2'
  4	'x-y, x, -z'
  5	'y, -x+y, -z'
  6	'-x, -y, -z'
  7	'-x+y, y, z+1/2'
  8	'x, x-y, z+1/2'
  9	'-y, -x, z+1/2'
 10	'-x+y, -x, z'
 11	'-y, x-y, z'
 12	'x, y, z'
 13	'x-y+2/3, -y+1/3, -z+5/6'
 14	'x-y+1/3, -y+2/3, -z+1/6'
 15	'-x+2/3, -x+y+1/3, -z+5/6'
 16	'-x+1/3, -x+y+2/3, -z+1/6'
 17	'y+2/3, x+1/3, -z+5/6'
 18	'y+1/3, x+2/3, -z+1/6'
 19	'x-y+2/3, x+1/3, -z+1/3'
 20	'x-y+1/3, x+2/3, -z+2/3'
 21	'y+2/3, -x+y+1/3, -z+1/3'
 22	'y+1/3, -x+y+2/3, -z+2/3'
 23	'-x+2/3, -y+1/3, -z+1/3'
 24	'-x+1/3, -y+2/3, -z+2/3'
 25	'-x+y+2/3, y+1/3, z+5/6'
 26	'-x+y+1/3, y+2/3, z+1/6'
 27	'x+2/3, x-y+1/3, z+5/6'
 28	'x+1/3, x-y+2/3, z+1/6'
 29	'-y+2/3, -x+1/3, z+5/6'
 30	'-y+1/3, -x+2/3, z+1/6'
 31	'-x+y+2/3, -x+1/3, z+1/3'
 32	'-x+y+1/3, -x+2/3, z+2/3'
 33	'-y+2/3, x-y+1/3, z+1/3'
 34	'-y+1/3, x-y+2/3, z+2/3'
 35	'x+2/3, y+1/3, z+1/3'
 36	'x+1/3, y+2/3, z+2/3'
loop_
_atom_type_symbol
_atom_type_oxidation_number
Mo3+	3
O2-	-2
V3+	3
loop_
_atom_site_label
_atom_site_type_symbol
_atom_site_symmetry_multiplicity
_atom_site_Wyckoff_symbol
_atom_site_fract_x
_atom_site_fract_y
_atom_site_fract_z
_atom_site_occupancy
_atom_site_attached_hydrogens
_atom_site_B_iso_or_equiv
V1 V3+ 12 c 0 0 0.3433(1) 0.8 0 0.44(4) 
Mo1 Mo3+ 12 c 0 0 0.3433(1) 0.2 0 0.44(4) 
O1 O2- 18 e 0.3164(4) 0 0.250 1. 0 0.31(3) 

#End of data_97448-ICSD


