data_18302-ICSD
#©2017 by Fachinformationszentrum Karlsruhe, and the U.S. Secretary of 
#Commerce on behalf of the United States.  All rights reserved.
_database_code_ICSD                18302
_audit_creation_date               1980/01/01
_audit_update_record               1987/10/12
_chemical_name_systematic          'Tritungsten(V) Pentavanadium Oxide'
_chemical_formula_structural       'W3 V5 O20'
_chemical_formula_sum              'O20 V5 W3'
_publ_section_title
;
The crystal structure of monoclinic W3 V5 O20, an OD structure 
related to R-Nb2 O5
;
loop_
_citation_id
_citation_journal_abbrev
_citation_year
_citation_journal_volume
_citation_journal_issue
_citation_page_first
_citation_page_last
_citation_journal_id_ASTM
primary 'Journal of Solid State Chemistry' 1970 1 * 469 477 JSSCBI
_publ_author_name                  'Israelsson, M.;Kihlborg, L.'
_cell_length_a                     24.413(3)
_cell_length_b                     7.446(2)
_cell_length_c                     3.950(1)
_cell_angle_alpha                  90.
_cell_angle_beta                   91.03(2)
_cell_angle_gamma                  90.
_cell_volume                       717.91
_cell_formula_units_Z              2
_symmetry_space_group_name_H-M     'C 1 2/m 1'
_symmetry_Int_Tables_number        12
_refine_ls_R_factor_all            0.073
loop_
_symmetry_equiv_pos_site_id
_symmetry_equiv_pos_as_xyz
  1	'-x, y, -z'
  2	'-x, -y, -z'
  3	'x, -y, z'
  4	'x, y, z'
  5	'-x+1/2, y+1/2, -z'
  6	'-x+1/2, -y+1/2, -z'
  7	'x+1/2, -y+1/2, z'
  8	'x+1/2, y+1/2, z'
loop_
_atom_type_symbol
_atom_type_oxidation_number
O2-	-2
V5+	5
W5+	5
loop_
_atom_site_label
_atom_site_type_symbol
_atom_site_symmetry_multiplicity
_atom_site_Wyckoff_symbol
_atom_site_fract_x
_atom_site_fract_y
_atom_site_fract_z
_atom_site_occupancy
_atom_site_attached_hydrogens
_atom_site_B_iso_or_equiv
V1 V5+ 8 j 0.0739(2) 0.2494(9) 0.0856(14) 0.75 0 0.49 
W1 W5+ 4 i 0.1787(1) 0.5 0.9291(7) 1. 0 0.24 
V2 V5+ 4 i 0.1715(4) 0 0.9163(25) 1. 0 1.61 
W2 W5+ 8 j 0.0739(2) 0.2494(9) 0.0856(14) 0.25 0 0.49 
O1 O2- 4 g 0 0.262(6) 0 1. 0 0.9 
O2 O2- 4 i 0.902(14) 0 0.026(9) 1. 0 0.9 
O3 O2- 8 j 0.1589(13) 0.255(5) 0.033(9) 1. 0 0.9 
O4 O2- 4 i 0.0886(14) 0.5 0.036(9) 1. 0 0.9 
O5 O2- 4 i 0.2493(12) 0.5 0.995(8) 1. 0 0.9 
O6 O2- 8 j 0.0795(13) 0.250(5) 0.536(9) 1. 0 0.9 
O7 O2- 4 i 0.1787(14) 0.5 0.511(9) 1. 0 0.9 
O8 O2- 4 i 0.1822(14) 0 0.556(10) 1. 0 0.9 

#End of data_18302-ICSD


