data_80055-ICSD
#©2017 by Fachinformationszentrum Karlsruhe, and the U.S. Secretary of 
#Commerce on behalf of the United States.  All rights reserved.
_database_code_ICSD                80055
_audit_creation_date               1996/10/14
_audit_update_record               2006/04/01
_chemical_name_systematic          'Tungsten Oxide'
_chemical_formula_structural       'W O3'
_chemical_formula_sum              'O3 W1'
_publ_section_title
;
Structure refinement of triclinic tungsten trioxide
;
loop_
_citation_id
_citation_journal_abbrev
_citation_year
_citation_journal_volume
_citation_journal_issue
_citation_page_first
_citation_page_last
_citation_journal_id_ASTM
primary 'Journal of Physics and Chemistry of Solids' 1995 56 56 1305 1315 JPCSAW
2 'Golden Book of Phase Transitions, Wroclaw' 2002 1 * 1 123 GBOPT5
_publ_author_name
;
Woodward, P.M.;Sleight, A.W.;Vogt, T.
;
_cell_length_a                     7.3105(2)
_cell_length_b                     7.5241(2)
_cell_length_c                     7.6859(2)
_cell_angle_alpha                  88.850(2)
_cell_angle_beta                   90.913(3)
_cell_angle_gamma                  90.935(2)
_cell_volume                       422.57
_cell_formula_units_Z              8
_symmetry_space_group_name_H-M     'P -1'
_symmetry_Int_Tables_number        2
_symmetry_cell_setting             triclinic
_refine_ls_R_factor_all            0.136
loop_
_symmetry_equiv_pos_site_id
_symmetry_equiv_pos_as_xyz
  1	'-x, -y, -z'
  2	'x, y, z'
loop_
_atom_type_symbol
_atom_type_oxidation_number
O2-	-2
W6+	6
loop_
_atom_site_label
_atom_site_type_symbol
_atom_site_symmetry_multiplicity
_atom_site_Wyckoff_symbol
_atom_site_fract_x
_atom_site_fract_y
_atom_site_fract_z
_atom_site_occupancy
_atom_site_attached_hydrogens
_atom_site_B_iso_or_equiv
W1 W6+ 2 i 0.261(3) 0.025(3) 0.289(3) 1. 0 0.7(4) 
W2 W6+ 2 i 0.249(4) 0.526(3) 0.227(3) 1. 0 1.7(5) 
W3 W6+ 2 i 0.242(3) 0.024(3) 0.784(3) 1. 0 0.8(4) 
W4 W6+ 2 i 0.258(3) 0.531(3) 0.717(3) 1. 0 0.4(4) 
O1 O2- 2 i 0.001(3) 0.037(2) 0.185(2) 1. 0 0.1(3) 
O2 O2- 2 i 0.501(3) 0.524(2) 0.217(2) 1. 0 0.0(3) 
O3 O2- 2 i 0.998(4) 0.475(3) 0.296(2) 1. 0 1.7(5) 
O4 O2- 2 i 0.502(3) 0.951(2) 0.273(2) 1. 0 -.4(3) 
O5 O2- 2 i 0.281(3) 0.251(2) 0.291(2) 1. 0 -.1(3) 
O6 O2- 2 i 0.215(3) 0.765(2) 0.211(2) 1. 0 0.4(4) 
O7 O2- 2 i 0.207(3) 0.259(3) 0.743(3) 1. 0 1.3(4) 
O8 O2- 2 i 0.287(4) 0.767(3) 0.765(3) 1. 0 2.6(5) 
O9 O2- 2 i 0.291(3) 0.045(3) 0.996(2) 1. 0 0.4(4) 
O10 O2- 2 i 0.290(3) 0.540(3) 0.502(2) 1. 0 0.8(4) 
O11 O2- 2 i 0.212(4) 0.494(2) 0.991(2) 1. 0 1.3(4) 
O12 O2- 2 i 0.212(3) 0.980(3) 0.505(2) 1. 0 0.4(4) 

#End of data_80055-ICSD


